# vtk DataFile Version 2.0
Mesquite Mesh bad_circle .
ASCII
DATASET UNSTRUCTURED_GRID
POINTS 33 float
   5.0000000E+00   0.0000000E+00  -5.0000000E+00
   4.6193976E+00  -1.9134172E+00  -5.0000000E+00
   3.5355339E+00  -3.5355339E+00  -5.0000000E+00
   1.9134172E+00  -4.6193976E+00  -5.0000000E+00
   0.0000000E+00  -5.0000000E+00  -5.0000000E+00
  -1.9134172E+00  -4.6193976E+00  -5.0000000E+00
  -3.5355339E+00  -3.5355339E+00  -5.0000000E+00
  -4.6193976E+00  -1.9134172E+00  -5.0000000E+00
  -5.0000000E+00   0.0000000E+00  -5.0000000E+00
  -4.6193976E+00   1.9134172E+00  -5.0000000E+00
  -3.5355339E+00   3.5355339E+00  -5.0000000E+00
  -1.9134172E+00   4.6193976E+00  -5.0000000E+00
   0.0000000E+00   5.0000000E+00  -5.0000000E+00
   1.9134172E+00   4.6193976E+00  -5.0000000E+00
   3.5355339E+00   3.5355339E+00  -5.0000000E+00
   4.6193976E+00   1.9134172E+00  -5.0000000E+00
   2.7493767E+00   2.9186259E+00  -5.0000000E+00
   6.3041174E-01   2.8284504E+00  -5.0000000E+00
  -1.3197453E+00   3.1914661E+00  -5.0000000E+00
   6.5324008E-01  -3.2389956E+00  -5.0000000E+00
  -3.8431610E-03  -1.5277857E+00  -5.0000000E+00
  -1.1786733E+00   1.3983780E-01  -5.0000000E+00
  -2.8377692E+00   1.7278323E+00  -5.0000000E+00
   2.4590433E+00  -2.5593807E+00  -5.0000000E+00
  -8.7417644E-01  -3.5058462E+00  -5.0000000E+00
  -3.7720851E+00  -1.3581247E-01  -5.0000000E+00
  -5.7513291E-01   1.6097605E+00  -5.0000000E+00
   1.6707618E+00   3.7991503E-01  -5.0000000E+00
   3.2182882E+00  -6.3740999E-01  -5.0000000E+00
   3.8191888E+00   7.6415038E-01  -5.0000000E+00
  -2.2667782E+00  -2.8397279E+00  -5.0000000E+00
  -1.8269010E+00  -2.2693044E+00  -5.0000000E+00
  -3.1467683E+00  -1.8978589E+00  -5.0000000E+00
CELLS 48 192
3         1        23        28
3         6        32        30
3        26        18        17
3        19         3         4
3         4         5        24
3        18        26        22
3        9        22        25
3        9        10        22
3         8        9        25
3        23         3        19
3         6         7        32
3        27        16        29
3        24         5        30
3        30         5         6
3        26        21        22
3        15        29        16
3         8        25         7
3        25        32         7
3        24        20        19
3        27        29        28
3         4        24        19
3        27        21        26
3        17        27        26
3        31        30        32
3        14        15        16
3        14        16        13
3        27        28        23
3         1        28         0
3        18        11        12
3        20        27        23
3        23        19        20
3        22        21        25
3         2         3        23
3         1         2        23
3        17        18        12
3        13        17        12
3        18        10        11
3        22        10        18
3        15         0        29
3        16        27        17
3        27        20        21
3        28        29         0
3        31        25        21
3        30        31        24
3        31        21        20
3        31        20        24
3        13        16        17
3        25        31        32
CELL_TYPES 48
5
5
5
5
5
5
5
5
5
5
5
5
5
5
5
5
5
5
5
5
5
5
5
5
5
5
5
5
5
5
5
5
5
5
5
5
5
5
5
5
5
5
5
5
5
5
5
5
POINT_DATA 33
SCALARS fixed float
LOOKUP_TABLE default
1
1
1
1
1
1
1
1
1
1
1
1
1
1
1
1
0
0
0
0
0
0
0
0
0
0
0
0
0
0
0
0
0
