# vtk DataFile Version 3.0
Mesquite Mesh
ASCII
DATASET UNSTRUCTURED_GRID
POINTS 104 double
0.9968169288 7.133915933 0
1.995769582 7.249849886 0
2.996396686 7.34318528 0
3.998033283 7.410576051 0
5.000100206 7.449469065 0
6.00219039 7.457663429 0
7.00391046 7.433786634 0
8.005427375 7.390443443 0
9.006517697 7.328292018 0
10.00644068 7.241452997 0
11.00446929 7.13074768 0
0.9818918603 1.615488917 0
1.978761061 2.118403546 0
2.982434057 2.50792406 0
3.988345408 2.785257213 0
4.994495911 2.951456269 0
6.00041916 3.007142797 0
7.006383567 2.952534849 0
8.012621158 2.787119897 0
9.018493664 2.509824129 0
10.0218659 2.119646309 0
11.01832932 1.61591087 0
0.9768362181 2.507406583 0
1.972727533 2.921091318 0
2.977437023 3.241088778 0
3.985136056 3.468802709 0
4.993212007 3.605327692 0
6.000986058 3.651439421 0
7.008794414 3.607604351 0
8.016964497 3.472987459 0
9.02455764 3.245714508 0
10.02869216 2.924557703 0
11.02373991 2.508927872 0
0.9791566852 3.407884236 0
1.975375885 3.740402748 0
2.979681644 3.998170575 0
3.986859979 4.181987372 0
4.99445266 4.292367655 0
6.001713428 4.330019718 0
7.008952152 4.29600026 0
8.016580225 4.189294893 0
9.023562172 4.006833902 0
10.02704626 3.747579781 0
11.0219562 3.411545641 0
0.9847549916 4.31588295 0
1.982024079 4.57500129 0
2.985410903 4.77735159 0
3.991076956 4.922302952 0
4.997053133 5.009399023 0
6.002623441 5.039188747 0
7.008053845 5.014352058 0
8.013974325 4.934020767 0
9.019324405 4.792139409 0
10.02166805 4.58833288 0
11.01714091 4.323628455 0
0.9903571361 5.237207666 0
1.988246284 5.437145259 0
2.990372821 5.595563475 0
3.994392 5.709761625 0
4.99887334 5.77804451 0
6.003124184 5.800161389 0
7.007037107 5.781860077 0
8.010781465 5.704934932 0
9.014193284 5.600326399 0
10.01543717 5.446253227 0
11.01184005 5.245188443 0
0.9946718555 6.177012318 0
1.993300193 6.32841756 0
2.994554328 6.449414361 0
3.997133212 6.536641306 0
5.000125289 6.587379664 0
6.003069065 6.597863017 0
7.005438635 6.582381985 0
8.008011229 6.526029378 0
9.010050527 6.448628649 0
10.01039548 6.332870198 0
11.00761578 6.182310517 0
12 7 0
0 7 0
1 0.7333333333 0
2 1.333333333 0
3 1.8 0
4 2.133333333 0
5 2.333333333 0
6 2.4 0
7 2.333333333 0
8 2.133333333 0
9 1.8 0
10 1.333333333 0
11 0.7333333333 0
12 1 0
12 2 0
12 3 0
12 4 0
12 5 0
0 1 0
0 2 0
0 3 0
0 4 0
0 5 0
12 6 0
0 6 0
12 0 0
0 0 0
CELLS 84 420
4 101 66 0 78
4 66 67 1 0
4 67 68 2 1
4 68 69 3 2
4 69 70 4 3
4 70 71 5 4
4 71 72 6 5
4 72 73 7 6
4 73 74 8 7
4 74 75 9 8
4 75 76 10 9
4 76 100 77 10
4 103 79 11 95
4 79 80 12 11
4 80 81 13 12
4 81 82 14 13
4 82 83 15 14
4 83 84 16 15
4 84 85 17 16
4 85 86 18 17
4 86 87 19 18
4 87 88 20 19
4 88 89 21 20
4 89 102 90 21
4 95 11 22 96
4 11 12 23 22
4 12 13 24 23
4 13 14 25 24
4 14 15 26 25
4 15 16 27 26
4 16 17 28 27
4 17 18 29 28
4 18 19 30 29
4 19 20 31 30
4 20 21 32 31
4 21 90 91 32
4 96 22 33 97
4 22 23 34 33
4 23 24 35 34
4 24 25 36 35
4 25 26 37 36
4 26 27 38 37
4 27 28 39 38
4 28 29 40 39
4 29 30 41 40
4 30 31 42 41
4 31 32 43 42
4 32 91 92 43
4 97 33 44 98
4 33 34 45 44
4 34 35 46 45
4 35 36 47 46
4 36 37 48 47
4 37 38 49 48
4 38 39 50 49
4 39 40 51 50
4 40 41 52 51
4 41 42 53 52
4 42 43 54 53
4 43 92 93 54
4 98 44 55 99
4 44 45 56 55
4 45 46 57 56
4 46 47 58 57
4 47 48 59 58
4 48 49 60 59
4 49 50 61 60
4 50 51 62 61
4 51 52 63 62
4 52 53 64 63
4 53 54 65 64
4 54 93 94 65
4 99 55 66 101
4 55 56 67 66
4 56 57 68 67
4 57 58 69 68
4 58 59 70 69
4 59 60 71 70
4 60 61 72 71
4 61 62 73 72
4 62 63 74 73
4 63 64 75 74
4 64 65 76 75
4 65 94 100 76
CELL_TYPES 84
9
9
9
9
9
9
9
9
9
9
9
9
9
9
9
9
9
9
9
9
9
9
9
9
9
9
9
9
9
9
9
9
9
9
9
9
9
9
9
9
9
9
9
9
9
9
9
9
9
9
9
9
9
9
9
9
9
9
9
9
9
9
9
9
9
9
9
9
9
9
9
9
9
9
9
9
9
9
9
9
9
9
9
9
POINT_DATA 104
SCALARS fixed int
LOOKUP_TABLE default
0
0
0
0
0
0
0
0
0
0
0
0
0
0
0
0
0
0
0
0
0
0
0
0
0
0
0
0
0
0
0
0
0
0
0
0
0
0
0
0
0
0
0
0
0
0
0
0
0
0
0
0
0
0
0
0
0
0
0
0
0
0
0
0
0
0
0
0
0
0
0
0
0
0
0
0
0
1
1
1
1
1
1
1
1
1
1
1
1
1
1
1
1
1
1
1
1
1
1
1
1
1
1
1
SCALARS GLOBAL_ID unsigned_long 1
LOOKUP_TABLE default
93
94
95
96
97
98
99
100
101
102
103
15
16
17
18
19
20
21
22
23
24
25
28
29
30
31
32
33
34
35
36
37
38
41
42
43
44
45
46
47
48
49
50
51
54
55
56
57
58
59
60
61
62
63
64
67
68
69
70
71
72
73
74
75
76
77
80
81
82
83
84
85
86
87
88
89
90
104
92
2
3
4
5
6
7
8
9
10
11
12
26
39
52
65
78
14
27
40
53
66
91
79
13
1
SCALARS PROCESSOR_ID int 1
LOOKUP_TABLE default
1
1
1
1
1
1
1
1
1
1
1
0
0
0
0
0
0
0
0
0
0
0
0
0
0
0
0
0
0
0
0
0
0
0
0
0
0
0
0
0
0
0
0
0
0
0
0
0
0
0
0
0
0
0
0
0
0
0
0
0
0
0
0
0
0
0
1
1
1
1
1
1
1
1
1
1
1
1
1
0
0
0
0
0
0
0
0
0
0
0
0
0
0
0
0
0
0
0
0
0
1
1
0
0
