# vtk DataFile Version 3.0
Mesquite Mesh
ASCII
DATASET UNSTRUCTURED_GRID
POINTS 104 double
0.9903571361 5.237207666 0
1.988246284 5.437145259 0
2.990372821 5.595563475 0
3.994392 5.709761625 0
4.99887334 5.77804451 0
6.003124184 5.800161389 0
7.007037107 5.781860077 0
8.010781465 5.704934932 0
9.014193284 5.600326399 0
10.01543717 5.446253227 0
11.01184005 5.245188443 0
0.9968169288 7.133915933 0
1.995769582 7.249849886 0
2.996396686 7.34318528 0
3.998033283 7.410576051 0
5.000100206 7.449469065 0
6.00219039 7.457663429 0
7.00391046 7.433786634 0
8.005427375 7.390443443 0
9.006517697 7.328292018 0
10.00644068 7.241452997 0
11.00446929 7.13074768 0
0.9981521965 8.098400288 0
1.997443685 8.184464463 0
2.997759284 8.254214664 0
3.998774402 8.304758448 0
5.000139351 8.334074249 0
6.001562929 8.341003665 0
7.002806094 8.32593589 0
8.003815202 8.293227528 0
9.004395188 8.24414337 0
10.00415022 8.177768235 0
11.00272974 8.095251795 0
0.9989674318 9.068812473 0
1.998530804 9.129491496 0
2.998694243 9.178951948 0
3.999305908 9.214954753 0
5.000164396 9.236021649 0
6.001081621 9.241474205 0
7.001902337 9.23169723 0
8.002530162 9.2084069 0
9.002822925 9.17263739 0
10.00257381 9.124865479 0
11.0016271 9.066426636 0
0.9994615861 10.04354669 0
1.999220571 10.08217388 0
2.999306527 10.11379974 0
3.999651302 10.13691393 0
5.000146442 10.15054534 0
6.000682673 10.15427731 0
7.001166005 10.14830679 0
8.001521344 10.13338 0
9.001659667 10.11018698 0
10.00147676 10.0793738 0
11.00090878 10.04203493 0
0.99977179 11.02108616 0
1.99966787 11.03985662 0
2.999707353 11.05526751 0
3.999862966 11.06656112 0
5.000087033 11.07325493 0
6.000330303 11.0751428 0
7.000549652 11.07229781 0
8.000707605 11.06501552 0
9.000762387 11.05363823 0
10.0006698 11.03855636 0
11.00040651 11.02036867 0
0.9946718555 6.177012318 0
1.993300193 6.32841756 0
2.994554328 6.449414361 0
3.997133212 6.536641306 0
5.000125289 6.587379664 0
6.003069065 6.597863017 0
7.005438635 6.582381985 0
8.008011229 6.526029378 0
9.010050527 6.448628649 0
10.01039548 6.332870198 0
11.00761578 6.182310517 0
12 5 0
0 5 0
12 7 0
12 8 0
12 9 0
12 10 0
12 11 0
1 12 0
2 12 0
3 12 0
4 12 0
5 12 0
6 12 0
7 12 0
8 12 0
9 12 0
10 12 0
11 12 0
0 7 0
0 8 0
0 9 0
0 10 0
0 11 0
12 6 0
0 6 0
12 12 0
0 12 0
CELLS 84 420
4 78 0 66 101
4 0 1 67 66
4 1 2 68 67
4 2 3 69 68
4 3 4 70 69
4 4 5 71 70
4 5 6 72 71
4 6 7 73 72
4 7 8 74 73
4 8 9 75 74
4 9 10 76 75
4 10 77 100 76
4 101 66 11 95
4 66 67 12 11
4 67 68 13 12
4 68 69 14 13
4 69 70 15 14
4 70 71 16 15
4 71 72 17 16
4 72 73 18 17
4 73 74 19 18
4 74 75 20 19
4 75 76 21 20
4 76 100 79 21
4 95 11 22 96
4 11 12 23 22
4 12 13 24 23
4 13 14 25 24
4 14 15 26 25
4 15 16 27 26
4 16 17 28 27
4 17 18 29 28
4 18 19 30 29
4 19 20 31 30
4 20 21 32 31
4 21 79 80 32
4 96 22 33 97
4 22 23 34 33
4 23 24 35 34
4 24 25 36 35
4 25 26 37 36
4 26 27 38 37
4 27 28 39 38
4 28 29 40 39
4 29 30 41 40
4 30 31 42 41
4 31 32 43 42
4 32 80 81 43
4 97 33 44 98
4 33 34 45 44
4 34 35 46 45
4 35 36 47 46
4 36 37 48 47
4 37 38 49 48
4 38 39 50 49
4 39 40 51 50
4 40 41 52 51
4 41 42 53 52
4 42 43 54 53
4 43 81 82 54
4 98 44 55 99
4 44 45 56 55
4 45 46 57 56
4 46 47 58 57
4 47 48 59 58
4 48 49 60 59
4 49 50 61 60
4 50 51 62 61
4 51 52 63 62
4 52 53 64 63
4 53 54 65 64
4 54 82 83 65
4 99 55 84 103
4 55 56 85 84
4 56 57 86 85
4 57 58 87 86
4 58 59 88 87
4 59 60 89 88
4 60 61 90 89
4 61 62 91 90
4 62 63 92 91
4 63 64 93 92
4 64 65 94 93
4 65 83 102 94
CELL_TYPES 84
9
9
9
9
9
9
9
9
9
9
9
9
9
9
9
9
9
9
9
9
9
9
9
9
9
9
9
9
9
9
9
9
9
9
9
9
9
9
9
9
9
9
9
9
9
9
9
9
9
9
9
9
9
9
9
9
9
9
9
9
9
9
9
9
9
9
9
9
9
9
9
9
9
9
9
9
9
9
9
9
9
9
9
9
POINT_DATA 104
SCALARS fixed int
LOOKUP_TABLE default
0
0
0
0
0
0
0
0
0
0
0
0
0
0
0
0
0
0
0
0
0
0
0
0
0
0
0
0
0
0
0
0
0
0
0
0
0
0
0
0
0
0
0
0
0
0
0
0
0
0
0
0
0
0
0
0
0
0
0
0
0
0
0
0
0
0
0
0
0
0
0
0
0
0
0
0
0
1
1
1
1
1
1
1
1
1
1
1
1
1
1
1
1
1
1
1
1
1
1
1
1
1
1
1
SCALARS GLOBAL_ID unsigned_long 1
LOOKUP_TABLE default
67
68
69
70
71
72
73
74
75
76
77
93
94
95
96
97
98
99
100
101
102
103
106
107
108
109
110
111
112
113
114
115
116
119
120
121
122
123
124
125
126
127
128
129
132
133
134
135
136
137
138
139
140
141
142
145
146
147
148
149
150
151
152
153
154
155
80
81
82
83
84
85
86
87
88
89
90
78
66
104
117
130
143
156
158
159
160
161
162
163
164
165
166
167
168
92
105
118
131
144
91
79
169
157
SCALARS PROCESSOR_ID int 1
LOOKUP_TABLE default
0
0
0
0
0
0
0
0
0
0
0
1
1
1
1
1
1
1
1
1
1
1
1
1
1
1
1
1
1
1
1
1
1
1
1
1
1
1
1
1
1
1
1
1
1
1
1
1
1
1
1
1
1
1
1
1
1
1
1
1
1
1
1
1
1
1
1
1
1
1
1
1
1
1
1
1
1
0
0
1
1
1
1
1
1
1
1
1
1
1
1
1
1
1
1
1
1
1
1
1
1
1
1
1
