# vtk DataFile Version 2.0
MOAB vtk data file
ASCII
DATASET UNSTRUCTURED_GRID
POINTS 15 float
0 0 1
0 0 -1
1 0 0
0.612372 0.612372 0.5
0.612372 0.612372 -0.5
0 1 0
-0.612372 0.612372 0.5
-0.612372 0.612372 -0.5
-1 0 0
-0.612372 -0.612372 0.5
-0.612372 -0.612372 -0.5
0 -1 0
0.612372 -0.612372 0.5
0.612372 -0.612372 -0.5
0 0 0
CELLS 12 72
5 12 2 3 0 14
5 3 5 6 0 14
5 6 8 9 0 14
5 9 11 12 0 14
5 4 2 13 1 14
5 13 11 10 1 14
5 10 8 7 1 14
5 7 5 4 1 14
5 2 4 5 3 14
5 5 7 8 6 14
5 8 10 11 9 14
5 11 13 2 12 14
CELL_TYPES 12
14
14
14
14
14
14
14
14
14
14
14
14
POINT_DATA 15
SCALARS fixed bit
LOOKUP_TABLE default
1
1
1
1
1
1
1
1
1
1
1
1
1
1
0
