# vtk DataFile Version 3.0
Mesquite Mesh
ASCII
DATASET UNSTRUCTURED_GRID
POINTS 144 double
0.1778561811 0.1779444528 0.4792031686
0.3873613951 0.1627444131 0.5278137132
0.6128446194 0.1627249851 0.527753314
0.8222624736 0.1778777811 0.4791174549
0.1626560664 0.387490843 0.5277679165
0.3760863143 0.3762297774 0.6167145579
0.624183157 0.3761871878 0.6166351346
0.8374816848 0.3873835442 0.5276778096
0.1626610518 0.6129382906 0.5276866816
0.3760794557 0.6242917159 0.6165865013
0.6241506572 0.6242381649 0.6165494325
0.8374630952 0.6128375335 0.5276561123
0.1778413696 0.8223003573 0.479076609
0.3873282906 0.8375207543 0.5276385216
0.6127903353 0.8374963215 0.5276407561
0.8222334843 0.8222541282 0.4790877448
0.1929695036 0.192990558 0.8221415271
0.3960239418 0.1881761932 0.8357108565
0.604040552 0.1881704869 0.8357026373
0.8070711832 0.1929755143 0.8221362524
0.188145823 0.3960590753 0.8357079105
0.3931711712 0.3932214156 0.857419266
0.6069276155 0.393211293 0.8574067834
0.8119151784 0.396039073 0.835702522
0.1881430837 0.6040723282 0.8356972467
0.3931678678 0.6069724839 0.8574018822
0.606923534 0.6069618466 0.8573948972
0.81191399 0.6040569371 0.8356980162
0.192959075 0.807088977 0.8221333803
0.396015225 0.8119390954 0.8356995377
0.604036451 0.8119340797 0.8356975155
0.8070729467 0.8070834277 0.8221356138
0.1854012408 0.1854627121 0.6476054984
0.3915637705 0.1751771098 0.6773187097
0.6086106337 0.1751619864 0.6772812624
0.8147050672 0.1854159588 0.6475636545
0.1750999711 0.391665128 0.677296602
0.3847001469 0.3848354409 0.7281290735
0.6155586657 0.384803362 0.7280736868
0.8250464731 0.3915970721 0.6772471408
0.175097841 0.6086942565 0.6772460994
0.3846933958 0.6156715492 0.7280450476
0.6155388413 0.6156327939 0.7280142113
0.8250366618 0.6086347075 0.6772268255
0.185377709 0.8147461892 0.6475415677
0.3915397662 0.8250967523 0.6772241396
0.6085853448 0.8250789129 0.6772182068
0.8146980409 0.8147213956 0.6475432808
0 0.2 0.4
0 0.4 0.4
0 0.6 0.4
0 0.8 0.4
1 0.2 0.4
1 0.4 0.4
1 0.6 0.4
1 0.8 0.4
0.2 0 0.4
0.4 0 0.4
0.6 0 0.4
0.8 0 0.4
0.2 1 0.4
0.4 1 0.4
0.6 1 0.4
0.8 1 0.4
0 0.2 0.8
0 0.4 0.8
0 0.6 0.8
0 0.8 0.8
1 0.2 0.8
1 0.4 0.8
1 0.6 0.8
1 0.8 0.8
0.2 0 0.8
0.4 0 0.8
0.6 0 0.8
0.8 0 0.8
0.2 1 0.8
0.4 1 0.8
0.6 1 0.8
0.8 1 0.8
0.2 0.2 1
0.4 0.2 1
0.6 0.2 1
0.8 0.2 1
0.2 0.4 1
0.4 0.4 1
0.6 0.4 1
0.8 0.4 1
0.2 0.6 1
0.4 0.6 1
0.6 0.6 1
0.8 0.6 1
0.2 0.8 1
0.4 0.8 1
0.6 0.8 1
0.8 0.8 1
0 0.2 0.6
0 0.4 0.6
0 0.6 0.6
0 0.8 0.6
1 0.2 0.6
1 0.4 0.6
1 0.6 0.6
1 0.8 0.6
0.2 0 0.6
0.4 0 0.6
0.6 0 0.6
0.8 0 0.6
0.2 1 0.6
0.4 1 0.6
0.6 1 0.6
0.8 1 0.6
0 0 0.4
0 1 0.4
1 0 0.4
1 1 0.4
0 0 0.8
0 1 0.8
0 0.2 1
0 0.4 1
0 0.6 1
0 0.8 1
1 0 0.8
1 1 0.8
1 0.2 1
1 0.4 1
1 0.6 1
1 0.8 1
0.2 0 1
0.4 0 1
0.6 0 1
0.8 0 1
0.2 1 1
0.4 1 1
0.6 1 1
0.8 1 1
0 0 0.6
0 1 0.6
1 0 0.6
1 1 0.6
0 0 1
0 1 1
1 0 1
1 1 1
CELLS 75 675
8 112 56 0 48 136 104 32 96
8 56 57 1 0 104 105 33 32
8 57 58 2 1 105 106 34 33
8 58 59 3 2 106 107 35 34
8 59 114 52 3 107 138 100 35
8 48 0 4 49 96 32 36 97
8 0 1 5 4 32 33 37 36
8 1 2 6 5 33 34 38 37
8 2 3 7 6 34 35 39 38
8 3 52 53 7 35 100 101 39
8 49 4 8 50 97 36 40 98
8 4 5 9 8 36 37 41 40
8 5 6 10 9 37 38 42 41
8 6 7 11 10 38 39 43 42
8 7 53 54 11 39 101 102 43
8 50 8 12 51 98 40 44 99
8 8 9 13 12 40 41 45 44
8 9 10 14 13 41 42 46 45
8 10 11 15 14 42 43 47 46
8 11 54 55 15 43 102 103 47
8 51 12 60 113 99 44 108 137
8 12 13 61 60 44 45 109 108
8 13 14 62 61 45 46 110 109
8 14 15 63 62 46 47 111 110
8 15 55 115 63 47 103 139 111
8 136 104 32 96 116 72 16 64
8 104 105 33 32 72 73 17 16
8 105 106 34 33 73 74 18 17
8 106 107 35 34 74 75 19 18
8 107 138 100 35 75 122 68 19
8 96 32 36 97 64 16 20 65
8 32 33 37 36 16 17 21 20
8 33 34 38 37 17 18 22 21
8 34 35 39 38 18 19 23 22
8 35 100 101 39 19 68 69 23
8 97 36 40 98 65 20 24 66
8 36 37 41 40 20 21 25 24
8 37 38 42 41 21 22 26 25
8 38 39 43 42 22 23 27 26
8 39 101 102 43 23 69 70 27
8 98 40 44 99 66 24 28 67
8 40 41 45 44 24 25 29 28
8 41 42 46 45 25 26 30 29
8 42 43 47 46 26 27 31 30
8 43 102 103 47 27 70 71 31
8 99 44 108 137 67 28 76 117
8 44 45 109 108 28 29 77 76
8 45 46 110 109 29 30 78 77
8 46 47 111 110 30 31 79 78
8 47 103 139 111 31 71 123 79
8 116 72 16 64 140 128 80 118
8 72 73 17 16 128 129 81 80
8 73 74 18 17 129 130 82 81
8 74 75 19 18 130 131 83 82
8 75 122 68 19 131 142 124 83
8 64 16 20 65 118 80 84 119
8 16 17 21 20 80 81 85 84
8 17 18 22 21 81 82 86 85
8 18 19 23 22 82 83 87 86
8 19 68 69 23 83 124 125 87
8 65 20 24 66 119 84 88 120
8 20 21 25 24 84 85 89 88
8 21 22 26 25 85 86 90 89
8 22 23 27 26 86 87 91 90
8 23 69 70 27 87 125 126 91
8 66 24 28 67 120 88 92 121
8 24 25 29 28 88 89 93 92
8 25 26 30 29 89 90 94 93
8 26 27 31 30 90 91 95 94
8 27 70 71 31 91 126 127 95
8 67 28 76 117 121 92 132 141
8 28 29 77 76 92 93 133 132
8 29 30 78 77 93 94 134 133
8 30 31 79 78 94 95 135 134
8 31 71 123 79 95 127 143 135
CELL_TYPES 75
12
12
12
12
12
12
12
12
12
12
12
12
12
12
12
12
12
12
12
12
12
12
12
12
12
12
12
12
12
12
12
12
12
12
12
12
12
12
12
12
12
12
12
12
12
12
12
12
12
12
12
12
12
12
12
12
12
12
12
12
12
12
12
12
12
12
12
12
12
12
12
12
12
12
12
POINT_DATA 144
SCALARS fixed int
LOOKUP_TABLE default
0
0
0
0
0
0
0
0
0
0
0
0
0
0
0
0
0
0
0
0
0
0
0
0
0
0
0
0
0
0
0
0
0
0
0
0
0
0
0
0
0
0
0
0
0
0
0
0
1
1
1
1
1
1
1
1
1
1
1
1
1
1
1
1
1
1
1
1
1
1
1
1
1
1
1
1
1
1
1
1
1
1
1
1
1
1
1
1
1
1
1
1
1
1
1
1
1
1
1
1
1
1
1
1
1
1
1
1
1
1
1
1
1
1
1
1
1
1
1
1
1
1
1
1
1
1
1
1
1
1
1
1
1
1
1
1
1
1
1
1
1
1
1
1
SCALARS GLOBAL_ID unsigned_long 1
LOOKUP_TABLE default
80
81
82
83
86
87
88
89
92
93
94
95
98
99
100
101
152
153
154
155
158
159
160
161
164
165
166
167
170
171
172
173
116
117
118
119
122
123
124
125
128
129
130
131
134
135
136
137
79
85
91
97
84
90
96
102
74
75
76
77
104
105
106
107
151
157
163
169
156
162
168
174
146
147
148
149
176
177
178
179
188
189
190
191
194
195
196
197
200
201
202
203
206
207
208
209
115
121
127
133
120
126
132
138
110
111
112
113
140
141
142
143
73
103
78
108
145
175
187
193
199
205
150
180
192
198
204
210
182
183
184
185
212
213
214
215
109
139
114
144
181
211
186
216
SCALARS PROCESSOR_ID int 1
LOOKUP_TABLE default
0
0
0
0
0
0
0
0
0
0
0
0
0
0
0
0
1
1
1
1
1
1
1
1
1
1
1
1
1
1
1
1
1
1
1
1
1
1
1
1
1
1
1
1
1
1
1
1
0
0
0
0
0
0
0
0
0
0
0
0
0
0
0
0
1
1
1
1
1
1
1
1
1
1
1
1
1
1
1
1
1
1
1
1
1
1
1
1
1
1
1
1
1
1
1
1
1
1
1
1
1
1
1
1
1
1
1
1
1
1
1
1
0
0
0
0
1
1
1
1
1
1
1
1
1
1
1
1
1
1
1
1
1
1
1
1
1
1
1
1
1
1
1
1
